LAMMPS (23 Jun 2022 - Update 2)
WARNING: Using I/O redirection is unreliable with parallel runs. Better use -in switch to read input file. (../lammps.cpp:530)
units metal
boundary p p p
atom_style atomic
read_data Pd83Si17.lmp
Reading data file ...
  orthogonal box = (0 0 0) to (22.4692 23.7363 24.6136)
  1 by 2 by 3 MPI processor grid
  reading atoms ...
  896 atoms
  read_data CPU = 0.009 seconds
replicate 3 3 3
Replicating atoms ...
  orthogonal box = (0 0 0) to (67.4076 71.2089 73.8408)
  1 by 2 by 3 MPI processor grid
  24192 atoms
  replicate CPU = 0.004 seconds
read_dump cooling_full.dump 1700000 x y z vx vy vz box yes replace yes
Scanning dump file ...
Reading snapshot from dump file ...
  orthogonal box = (-0.33649131 -0.35546699 -0.36860514) to (67.744091 71.564367 74.209405)
  24192 atoms before read
  24192 atoms in snapshot
  0 atoms purged
  24192 atoms replaced
  0 atoms trimmed
  0 atoms added
  24192 atoms after read
replicate 2 2 2
Replicating atoms ...
  orthogonal box = (-0.33649131 -0.35546699 -0.36860514) to (135.82467 143.4842 148.78742)
  1 by 2 by 3 MPI processor grid
  193536 atoms
  replicate CPU = 0.011 seconds
mass 1 106.4
mass 2 28.09
pair_style eam/alloy
pair_coeff * * PdSi.lammps.eam Pd Si
timestep 0.0001

thermo 10
thermo_style custom step time temp etotal pe ke enthalpy density press vol ndanger

dump 1 all custom 100 heating_Si17.dump id type x y z

#velocity all create 300.0 4928459 rot yes dist gaussian

fix 1 all npt temp 300.0 2000 0.1 iso 0 0 0.5
run 17000
Neighbor list info ...
  update every 1 steps, delay 10 steps, check yes
  max neighbors/atom: 2000, page size: 100000
  master list distance cutoff = 8.5
  ghost atom cutoff = 8.5
  binsize = 4.25, bins = 33 34 36
  1 neighbor lists, perpetual/occasional/extra = 1 0 0
  (1) pair eam/alloy, perpetual
      attributes: half, newton on
      pair build: half/bin/atomonly/newton
      stencil: half/bin/3d
      bin: standard
Per MPI rank memory allocation (min/avg/max) = 26.75 | 27.07 | 27.73 Mbytes
   Step          Time           Temp          TotEng         PotEng         KinEng        Enthalpy       Density         Press          Volume       Ndanger  
   1700000   1700           503.63373     -829017.66     -841616.74      12599.084     -828436.1       10.234136      318.95322      2921276.9              0 
   1700010   1700.001       503.51408     -829018.51     -841614.6       12596.091     -828423.82      10.234128      326.15557      2921278.9              0 
   1700020   1700.002       503.33722     -829021.05     -841612.72      12591.666     -828420.15      10.234107      329.56443      2921285.1              0 
   1700030   1700.003       503.10506     -829025.25     -841611.11      12585.858     -828425.06      10.23407       329.1736       2921295.6              0 
   1700040   1700.004       502.82228     -829030.97     -841609.76      12578.784     -828438.37      10.234019      325.0118       2921310.2              0 
   1700050   1700.005       502.49873     -829037.99     -841608.68      12570.69      -828459.69      10.233953      317.16394      2921329                0 
   1700060   1700.006       502.15062     -829045.88     -841607.86      12561.982     -828488.25      10.233873      305.82109      2921351.8              0 
   1700070   1700.007       501.79824     -829054.12     -841607.29      12553.167     -828523.06      10.23378       291.25038      2921378.5              0 
   1700080   1700.008       501.46012     -829062.25     -841606.96      12544.708     -828562.74      10.233673      273.94703      2921409                0 
   1700090   1700.009       501.14683     -829069.99     -841606.86      12536.871     -828606.69      10.233554      254.07962      2921442.9              0 
   1700100   1700.01        500.85908     -829077.28     -841606.95      12529.672     -828654.62      10.233424      231.78784      2921480.1              0 
   1700110   1700.011       500.59048     -829084.26     -841607.21      12522.953     -828706.59      10.233283      207.1155       2921520.2              0 
   1700120   1700.012       500.33192     -829091.14     -841607.63      12516.484     -828762.51      10.233133      180.22162      2921563                0 
   1700130   1700.013       500.07476     -829098.11     -841608.16      12510.051     -828822.59      10.232975      151.09122      2921608.1              0 
   1700140   1700.014       499.81242     -829105.31     -841608.8       12503.488     -828886.26      10.232811      120.12005      2921655.2              0 
   1700150   1700.015       499.54073     -829112.82     -841609.51      12496.692     -828953.53      10.232641      87.350188      2921703.7              0 
   1700160   1700.016       499.25783     -829120.67     -841610.29      12489.615     -829023.47      10.232467      53.301582      2921753.4              0 
   1700170   1700.017       498.9638      -829128.87     -841611.13      12482.259     -829095.49      10.23229       18.301289      2921803.7              0 
   1700180   1700.018       498.66005     -829137.35     -841612.01      12474.66      -829169.23      10.232113     -17.47709       2921854.3              0 
   1700190   1700.019       498.3488      -829146.08     -841612.96      12466.874     -829243.66      10.231937     -53.504991      2921904.6              0 
   1700200   1700.02        498.03246     -829155        -841613.96      12458.96      -829318.25      10.231763     -89.516188      2921954.3              0 
   1700210   1700.021       497.71333     -829164.05     -841615.02      12450.977     -829392.09      10.231593     -125.03982      2922002.8              0 
   1700220   1700.022       497.3933      -829173.2      -841616.17      12442.971     -829464.83      10.231429     -159.90151      2922049.7              0 
   1700230   1700.023       497.07385     -829182.42     -841617.4       12434.979     -829535.6       10.231272     -193.64651      2922094.6              0 
   1700240   1700.024       496.75604     -829191.71     -841618.74      12427.029     -829603.63      10.231123     -225.84657      2922137                0 
   1700250   1700.025       496.44071     -829201.06     -841620.2       12419.141     -829668.11      10.230985     -256.07875      2922176.5              0 
   1700260   1700.026       496.12859     -829210.45     -841621.78      12411.333     -829728.8       10.230858     -284.20076      2922212.7              0 
   1700270   1700.027       495.82034     -829219.89     -841623.51      12403.621     -829785.56      10.230744     -310.13839      2922245.2              0 
   1700280   1700.028       495.51653     -829229.38     -841625.4       12396.021     -829837.76      10.230644     -333.5511       2922273.8              0 
   1700290   1700.029       495.21766     -829238.92     -841627.46      12388.544     -829885.09      10.230559     -354.27103      2922298.2              0 
   1700300   1700.03        494.92427     -829248.49     -841629.7       12381.205     -829927.41      10.23049      -372.22136      2922318                0 
   1700310   1700.031       494.63682     -829258.11     -841632.12      12374.014     -829964.24      10.230437     -387.13533      2922333.1              0 
   1700320   1700.032       494.35572     -829267.77     -841634.75      12366.982     -829995.46      10.230401     -398.9603       2922343.2              0 
   1700330   1700.033       494.08136     -829277.45     -841637.57      12360.118     -830021.19      10.230384     -407.75281      2922348.2              0 
   1700340   1700.034       493.81409     -829287.17     -841640.61      12353.432     -830041.34      10.230385     -413.47321      2922348                0 
   1700350   1700.035       493.55409     -829296.92     -841643.85      12346.928     -830055.47      10.230404     -415.87538      2922342.5              0 
   1700360   1700.036       493.30148     -829306.69     -841647.3       12340.608     -830063.58      10.230442     -414.9668       2922331.7              0 
   1700370   1700.037       493.05628     -829316.49     -841650.96      12334.474     -830065.71      10.230498     -410.76216      2922315.6              0 
   1700380   1700.038       492.8184      -829326.31     -841654.83      12328.524     -830061.93      10.230573     -403.31309      2922294.3              0 
   1700390   1700.039       492.58764     -829336.14     -841658.89      12322.751     -830052.34      10.230665     -392.66681      2922267.8              0 
   1700400   1700.04        492.36364     -829345.99     -841663.14      12317.147     -830036.95      10.230776     -378.83324      2922236.3              0 
   1700410   1700.041       492.14589     -829355.85     -841667.55      12311.7       -830016.31      10.230903     -362.11419      2922199.9              0 
   1700420   1700.042       491.93373     -829365.73     -841672.12      12306.392     -829990.56      10.231046     -342.58702      2922159                0 
   1700430   1700.043       491.72648     -829375.61     -841676.82      12301.208     -829959.56      10.231205     -320.17532      2922113.7              0 
   1700440   1700.044       491.52343     -829385.5      -841681.63      12296.128     -829923.77      10.231378     -295.13721      2922064.3              0 
   1700450   1700.045       491.32385     -829395.4      -841686.53      12291.135     -829883.39      10.231564     -267.57091      2922011.1              0 
   1700460   1700.046       491.12702     -829405.3      -841691.51      12286.211     -829838.97      10.231762     -237.79464      2921954.6              0 
   1700470   1700.047       490.93224     -829415.2      -841696.54      12281.339     -829790.89      10.231971     -206.00069      2921895                0 
   1700480   1700.048       490.73891     -829425.1      -841701.61      12276.502     -829739.74      10.232188     -172.52824      2921832.8              0 
   1700490   1700.049       490.54653     -829435.01     -841706.7       12271.69      -829686.14      10.232414     -137.70909      2921768.4              0 
   1700500   1700.05        490.35475     -829444.91     -841711.8       12266.892     -829630.45      10.232645     -101.7486       2921702.3              0 
   1700510   1700.051       490.1634      -829454.8      -841716.91      12262.105     -829573.34      10.232881     -65.007034      2921634.9              0 
   1700520   1700.052       489.97249     -829464.69     -841722.02      12257.329     -829515.62      10.23312      -27.931456      2921566.8              0 
   1700530   1700.053       489.78228     -829474.57     -841727.14      12252.571     -829458         10.23336       9.0876649      2921498.2              0 
   1700540   1700.054       489.59318     -829484.45     -841732.29      12247.84      -829401.09      10.2336        45.716874      2921429.9              0 
   1700550   1700.055       489.40587     -829494.31     -841737.47      12243.154     -829345.78      10.233837      81.461233      2921362.1              0 
   1700560   1700.056       489.2213      -829504.17     -841742.71      12238.537     -829292.83      10.234071      115.90922      2921295.5              0 
   1700570   1700.057       489.04077     -829514.01     -841748.03      12234.021     -829243.17      10.234299      148.54353      2921230.3              0 
   1700580   1700.058       488.86584     -829523.84     -841753.49      12229.645     -829196.97      10.23452       179.27866      2921167.1              0 
   1700590   1700.059       488.69834     -829533.66     -841759.12      12225.455     -829155.43      10.234734      207.45409      2921106.2              0 
   1700600   1700.06        488.54029     -829543.47     -841764.97      12221.501     -829118.25      10.234938      233.2334       2921048                0 
   1700610   1700.061       488.39376     -829553.27     -841771.1       12217.835     -829086.06      10.235131      256.26195      2920992.8              0 
   1700620   1700.062       488.26083     -829563.05     -841777.56      12214.51      -829059.43      10.235313      276.23915      2920940.9              0 
   1700630   1700.063       488.14345     -829572.81     -841784.39      12211.573     -829038.39      10.235482      293.14391      2920892.5              0 
   1700640   1700.064       488.04343     -829582.57     -841791.64      12209.071     -829023.53      10.235639      306.64844      2920848                0 
   1700650   1700.065       487.96227     -829592.3      -841799.35      12207.041     -829014.93      10.235781      316.71269      2920807.3              0 
   1700660   1700.066       487.90114     -829602.03     -841807.54      12205.512     -829012.92      10.235909      323.153        2920770.8              0 
   1700670   1700.067       487.86086     -829611.74     -841816.25      12204.504     -829017.93      10.236023      325.73736      2920738.4              0 
   1700680   1700.068       487.84186     -829621.44     -841825.47      12204.029     -829029.52      10.236121      324.70379      2920710.1              0 
   1700690   1700.069       487.84405     -829631.13     -841835.21      12204.083     -829047.8       10.236206      319.99059      2920686.1              0 
   1700700   1700.07        487.86679     -829640.8      -841845.45      12204.652     -829072.54      10.236276      311.72657      2920666.1              0 
   1700710   1700.071       487.90901     -829650.46     -841856.17      12205.709     -829103.71      10.236332      299.9278       2920650.1              0 
   1700720   1700.072       487.96924     -829660.11     -841867.32      12207.215     -829140.98      10.236374      284.78008      2920638                0 
   1700730   1700.073       488.0456      -829669.74     -841878.87      12209.126     -829184.43      10.236404      266.22766      2920629.5              0 
   1700740   1700.074       488.13587     -829679.36     -841890.75      12211.384     -829233.05      10.236422      244.83525      2920624.4              0 
   1700750   1700.075       488.23744     -829688.97     -841902.9       12213.925     -829285.96      10.236429      221.0812       2920622.4              0 
   1700760   1700.076       488.34746     -829698.57     -841915.25      12216.677     -829342.95      10.236426      195.0811       2920623.2              0 
   1700770   1700.077       488.4628      -829708.15     -841927.72      12219.562     -829403.31      10.236414      167.23036      2920626.6              0 
   1700780   1700.078       488.58015     -829717.72     -841940.22      12222.498     -829466.4       10.236395      137.86809      2920632                0 
   1700790   1700.079       488.69603     -829727.28     -841952.68      12225.397     -829531.37      10.23637       107.47338      2920639.3              0 
   1700800   1700.08        488.80696     -829736.82     -841965         12228.172     -829597.74      10.23634       76.297845      2920647.9              0 
   1700810   1700.081       488.90952     -829746.35     -841977.09      12230.738     -829664.54      10.236306      44.878379      2920657.4              0 
   1700820   1700.082       489.00045     -829755.87     -841988.88      12233.012     -829731.07      10.236271      13.604772      2920667.5              0 
   1700830   1700.083       489.07668     -829765.36     -842000.28      12234.919     -829796.6       10.236235     -17.135988      2920677.8              0 
   1700840   1700.084       489.13544     -829774.84     -842011.23      12236.389     -829860.43      10.236199     -46.95077       2920687.9              0 
   1700850   1700.085       489.17422     -829784.3      -842021.66      12237.359     -829921.97      10.236166     -75.520817      2920697.4              0 
   1700860   1700.086       489.19088     -829793.75     -842031.52      12237.776     -829981.1       10.236136     -102.77185      2920705.9              0 
   1700870   1700.087       489.18364     -829803.17     -842040.76      12237.595     -830037.45      10.236111     -128.51472      2920713                0 
   1700880   1700.088       489.15115     -829812.57     -842049.35      12236.782     -830090.29      10.236092     -152.346        2920718.6              0 
   1700890   1700.089       489.09249     -829821.94     -842057.26      12235.315     -830139.13      10.236079     -173.99192      2920722.2              0 
   1700900   1700.09        489.00717     -829831.3      -842064.48      12233.181     -830183.64      10.236075     -193.27748      2920723.5              0 
   1700910   1700.091       488.89515     -829840.62     -842071         12230.378     -830223.53      10.236078     -210.04552      2920722.4              0 
   1700920   1700.092       488.75673     -829849.92     -842076.84      12226.915     -830258.82      10.236092     -224.30375      2920718.7              0 
   1700930   1700.093       488.59255     -829859.19     -842082         12222.808     -830289.11      10.236115     -235.83631      2920712                0 
   1700940   1700.094       488.40351     -829868.43     -842086.51      12218.079     -830314.45      10.236149     -244.66464      2920702.4              0 
   1700950   1700.095       488.19077     -829877.64     -842090.4       12212.757     -830334.73      10.236193     -250.73993      2920689.6              0 
   1700960   1700.096       487.95571     -829886.81     -842093.69      12206.877     -830349.5       10.236249     -253.81489      2920673.7              0 
   1700970   1700.097       487.69996     -829895.95     -842096.43      12200.479     -830359.05      10.236316     -254.04184      2920654.5              0 
   1700980   1700.098       487.42538     -829905.06     -842098.67      12193.61      -830363.45      10.236395     -251.46324      2920632.1              0 
   1700990   1700.099       487.13409     -829914.12     -842100.44      12186.323     -830363.24      10.236485     -246.37549      2920606.5              0 
   1701000   1700.1         486.8284      -829923.15     -842101.82      12178.676     -830358.51      10.236585     -238.83497      2920577.8              0 
   1701010   1700.101       486.51078     -829932.13     -842102.86      12170.73      -830349.67      10.236696     -229.05709      2920546.1              0 
   1701020   1700.102       486.18381     -829941.07     -842103.62      12162.55      -830336.93      10.236818     -217.16565      2920511.4              0 
   1701030   1700.103       485.85013     -829949.97     -842104.17      12154.203     -830320.7       10.236949     -203.38275      2920474                0 
   1701040   1700.104       485.51237     -829958.83     -842104.58      12145.753     -830301.4       10.237089     -187.93706      2920434.1              0 
   1701050   1700.105       485.17314     -829967.63     -842104.9       12137.267     -830279.54      10.237237     -171.11444      2920391.7              0 
   1701060   1700.106       484.83506     -829976.4      -842105.21      12128.809     -830255.3       10.237393     -153.01372      2920347.2              0 
   1701070   1700.107       484.50071     -829985.11     -842105.56      12120.445     -830229.09      10.237556     -133.85493      2920300.8              0 
   1701080   1700.108       484.17261     -829993.78     -842106.02      12112.237     -830201.16      10.237725     -113.77873      2920252.7              0 
   1701090   1700.109       483.85323     -830002.4      -842106.65      12104.248     -830172.15      10.237898     -93.134726      2920203.2              0 
   1701100   1700.11        483.54484     -830010.97     -842107.51      12096.533     -830142.98      10.238076     -72.427879      2920152.5              0 
   1701110   1700.111       483.24953     -830019.5      -842108.64      12089.145     -830113.9       10.238257     -51.799091      2920101                0 
   1701120   1700.112       482.96912     -830027.97     -842110.1       12082.131     -830085.54      10.23844      -31.588365      2920048.8              0 
   1701130   1700.113       482.70515     -830036.39     -842111.92      12075.527     -830058.22      10.238624     -11.977763      2919996.3              0 
   1701140   1700.114       482.4588      -830044.77     -842114.13      12069.364     -830032.22      10.238809      6.8853869      2919943.6              0 
   1701150   1700.115       482.23087     -830053.1      -842116.76      12063.662     -830007.76      10.238993      24.878714      2919891.1              0 
   1701160   1700.116       482.02181     -830061.37     -842119.81      12058.432     -829985.03      10.239176      41.893489      2919838.9              0 
   1701170   1700.117       481.83165     -830069.6      -842123.28      12053.675     -829964.11      10.239357      57.885216      2919787.3              0 
   1701180   1700.118       481.66009     -830077.78     -842127.17      12049.383     -829945.23      10.239535      72.738191      2919736.4              0 
   1701190   1700.119       481.50645     -830085.92     -842131.46      12045.54      -829928.65      10.23971       86.297833      2919686.6              0 
   1701200   1700.12        481.36969     -830094        -842136.12      12042.119     -829914.74      10.239881      98.373513      2919637.9              0 
   1701210   1700.121       481.24844     -830102.04     -842141.13      12039.085     -829903.3       10.240047      109.06134      2919590.4              0 
   1701220   1700.122       481.14109     -830110.03     -842146.43      12036.4       -829894.31      10.240208      118.38284      2919544.5              0 
   1701230   1700.123       481.04588     -830117.98     -842151.99      12034.018     -829887.76      10.240364      126.33774      2919500                0 
   1701240   1700.124       480.96096     -830125.88     -842157.77      12031.894     -829883.5       10.240514      133.01241      2919457.2              0 
   1701250   1700.125       480.88447     -830133.73     -842163.71      12029.98      -829881.51      10.240658      138.41451      2919416.2              0 
   1701260   1700.126       480.81466     -830141.53     -842169.77      12028.234     -829881.88      10.240796      142.50281      2919376.9              0 
   1701270   1700.127       480.7499      -830149.29     -842175.91      12026.614     -829884.46      10.240927      145.34598      2919339.5              0 
   1701280   1700.128       480.68874     -830157.01     -842182.09      12025.083     -829888.74      10.241052      147.23264      2919304                0 
   1701290   1700.129       480.62984     -830164.68     -842188.29      12023.61      -829894.91      10.24117       148.05486      2919270.3              0 
   1701300   1700.13        480.57207     -830172.3      -842194.47      12022.165     -829903.07      10.241281      147.76513      2919238.6              0 
   1701310   1700.131       480.51452     -830179.88     -842200.6       12020.725     -829913.3       10.241386      146.30571      2919208.9              0 
   1701320   1700.132       480.45655     -830187.41     -842206.68      12019.275     -829925.28      10.241484      143.86585      2919181                0 
   1701330   1700.133       480.39781     -830194.89     -842212.69      12017.806     -829938.61      10.241575      140.65958      2919154.9              0 
   1701340   1700.134       480.3382      -830202.32     -842218.64      12016.314     -829953.69      10.24166       136.46182      2919130.7              0 
   1701350   1700.135       480.27777     -830209.71     -842224.52      12014.803     -829969.98      10.241739      131.58068      2919108.2              0 
   1701360   1700.136       480.21673     -830217.05     -842230.33      12013.276     -829987.31      10.241812      126.09798      2919087.5              0 
   1701370   1700.137       480.15535     -830224.34     -842236.08      12011.74      -830005.79      10.241879      119.95556      2919068.3              0 
   1701380   1700.138       480.09393     -830231.59     -842241.79      12010.204     -830025.26      10.24194       113.24913      2919050.8              0 
   1701390   1700.139       480.0328      -830238.78     -842247.45      12008.674     -830045.76      10.241997      105.94093      2919034.6              0 
   1701400   1700.14        479.97236     -830245.92     -842253.09      12007.162     -830067.34      10.242049      98.020664      2919019.9              0 
   1701410   1700.141       479.91296     -830253.02     -842258.69      12005.676     -830090.06      10.242096      89.441103      2919006.4              0 
   1701420   1700.142       479.85498     -830260.06     -842264.29      12004.226     -830113.61      10.242139      80.382264      2918994                0 
   1701430   1700.143       479.79872     -830267.05     -842269.87      12002.819     -830137.96      10.242179      70.855912      2918982.7              0 
   1701440   1700.144       479.74448     -830273.99     -842275.45      12001.462     -830163.03      10.242216      60.905528      2918972.3              0 
   1701450   1700.145       479.69251     -830280.88     -842281.04      12000.162     -830188.81      10.242249      50.533602      2918962.7              0 
   1701460   1700.146       479.64309     -830287.72     -842286.64      11998.925     -830215.32      10.242281      39.739216      2918953.7              0 
   1701470   1700.147       479.59645     -830294.5      -842292.26      11997.759     -830242.66      10.242311      28.451049      2918945.3              0 
   1701480   1700.148       479.55284     -830301.23     -842297.89      11996.668     -830270.82      10.242339      16.691164      2918937.2              0 
   1701490   1700.149       479.51248     -830307.9      -842303.56      11995.658     -830299.47      10.242366      4.6293448      2918929.3              0 
   1701500   1700.15        479.47558     -830314.52     -842309.26      11994.735     -830328.25      10.242394     -7.5341832      2918921.5              0 
   1701510   1700.151       479.44228     -830321.09     -842314.99      11993.902     -830357.38      10.242422     -19.919558      2918913.6              0 
   1701520   1700.152       479.41272     -830327.6      -842320.76      11993.162     -830386.69      10.24245      -32.43602       2918905.5              0 
   1701530   1700.153       479.38707     -830334.05     -842326.57      11992.521     -830416.06      10.24248      -45.0138        2918897                0 
   1701540   1700.154       479.36551     -830340.45     -842332.43      11991.981     -830445.46      10.242512     -57.641432      2918887.9              0 
   1701550   1700.155       479.34829     -830346.79     -842338.34      11991.55      -830474.95      10.242546     -70.347119      2918878                0 
   1701560   1700.156       479.33563     -830353.08     -842344.31      11991.234     -830504.07      10.242584     -82.881559      2918867.3              0 
   1701570   1700.157       479.32771     -830359.3      -842350.34      11991.035     -830532.9       10.242625     -95.288734      2918855.5              0 
   1701580   1700.158       479.32463     -830365.47     -842356.43      11990.958     -830560.97      10.242671     -107.30977      2918842.6              0 
   1701590   1700.159       479.3265      -830371.58     -842362.59      11991.005     -830588.12      10.242721     -118.86118      2918828.2              0 
   1701600   1700.16        479.33343     -830377.63     -842368.81      11991.179     -830614.26      10.242777     -129.88729      2918812.4              0 
   1701610   1700.161       479.34553     -830383.63     -842375.11      11991.481     -830639.31      10.242838     -140.34981      2918794.9              0 
   1701620   1700.162       479.36289     -830389.56     -842381.47      11991.916     -830663.06      10.242906     -150.13073      2918775.7              0 
   1701630   1700.163       479.38552     -830395.43     -842387.91      11992.482     -830685.32      10.24298      -159.1293       2918754.5              0 
   1701640   1700.164       479.41337     -830401.24     -842394.42      11993.179     -830706.28      10.243061     -167.44643      2918731.4              0 
   1701650   1700.165       479.44635     -830406.99     -842400.99      11994.003     -830725.59      10.24315      -174.89089      2918706.1              0 
   1701660   1700.166       479.48425     -830412.68     -842407.63      11994.952     -830742.88      10.243246     -181.26082      2918678.6              0 
   1701670   1700.167       479.5268      -830418.3      -842414.32      11996.016     -830757.65      10.243351     -186.28314      2918648.8              0 
   1701680   1700.168       479.57356     -830423.86     -842421.05      11997.186     -830769.8       10.243463     -189.90256      2918616.7              0 
   1701690   1700.169       479.624       -830429.36     -842427.81      11998.448     -830779.15      10.243585     -192.02103      2918582.2              0 
   1701700   1700.17        479.67738     -830434.79     -842434.57      11999.783     -830785.47      10.243714     -192.50942      2918545.3              0 
   1701710   1700.171       479.7329      -830440.16     -842441.33      12001.172     -830788.29      10.243852     -191.11212      2918505.9              0 
   1701720   1700.172       479.78964     -830445.46     -842448.05      12002.591     -830787.77      10.243999     -187.91769      2918464.2              0 
   1701730   1700.173       479.84654     -830450.7      -842454.71      12004.015     -830783.48      10.244154     -182.69437      2918420.1              0 
   1701740   1700.174       479.90234     -830455.87     -842461.28      12005.411     -830775.61      10.244317     -175.54063      2918373.7              0 
   1701750   1700.175       479.95566     -830460.96     -842467.71      12006.745     -830764.11      10.244487     -166.42773      2918325.1              0 
   1701760   1700.176       480.00502     -830465.99     -842473.97      12007.979     -830748.48      10.244665     -155.08979      2918274.4              0 
   1701770   1700.177       480.04885     -830470.95     -842480.03      12009.076     -830728.76      10.24485      -141.54169      2918221.8              0 
   1701780   1700.178       480.08555     -830475.84     -842485.83      12009.994     -830704.89      10.245041     -125.75577      2918167.4              0 
   1701790   1700.179       480.11347     -830480.65     -842491.34      12010.693     -830677.08      10.245237     -107.84998      2918111.5              0 
   1701800   1700.18        480.131       -830485.39     -842496.52      12011.131     -830645.61      10.245438     -87.969909      2918054.3              0 
   1701810   1700.181       480.13666     -830490.05     -842501.33      12011.272     -830610.62      10.245642     -66.200096      2917996                0 
   1701820   1700.182       480.12906     -830494.64     -842505.72      12011.083     -830572.49      10.24585      -42.744291      2917936.9              0 
   1701830   1700.183       480.10701     -830499.14     -842509.67      12010.531     -830531.41      10.246059     -17.717853      2917877.4              0 
   1701840   1700.184       480.06946     -830503.57     -842513.16      12009.591     -830487.8       10.246269      8.6568101      2917817.6              0 
   1701850   1700.185       480.01566     -830507.91     -842516.15      12008.246     -830442.07      10.246478      36.150972      2917758.1              0 
   1701860   1700.186       479.94516     -830512.16     -842518.64      12006.482     -830394.58      10.246685      64.565225      2917699                0 
   1701870   1700.187       479.85783     -830516.33     -842520.63      12004.297     -830345.96      10.246889      93.555525      2917640.9              0 
   1701880   1700.188       479.75389     -830520.41     -842522.11      12001.697     -830296.47      10.247089      122.97705      2917584                0 
   1701890   1700.189       479.63388     -830524.4      -842523.09      11998.695     -830246.8       10.247283      152.44464      2917528.8              0 
   1701900   1700.19        479.49868     -830528.29     -842523.61      11995.313     -830197.17      10.24747       181.83955      2917475.5              0 
   1701910   1700.191       479.34954     -830532.09     -842523.67      11991.582     -830148.15      10.247649      210.8521       2917424.6              0 
   1701920   1700.192       479.18807     -830535.79     -842523.33      11987.542     -830100.31      10.247818      239.16114      2917376.5              0 
   1701930   1700.193       479.01623     -830539.39     -842522.64      11983.243     -830054.59      10.247976      266.24975      2917331.4              0 
   1701940   1700.194       478.83627     -830542.89     -842521.63      11978.741     -830011.23      10.248123      291.98759      2917289.8              0 
   1701950   1700.195       478.65067     -830546.28     -842520.38      11974.098     -829971.01      10.248255      315.94143      2917252                0 
   1701960   1700.196       478.46216     -830549.56     -842518.94      11969.383     -829934.83      10.248374      337.61879      2917218.2              0 
   1701970   1700.197       478.27362     -830552.73     -842517.4       11964.666     -829902.87      10.248477      356.91547      2917188.8              0 
   1701980   1700.198       478.08801     -830555.79     -842515.81      11960.023     -829875.79      10.248565      373.47032      2917164                0 
   1701990   1700.199       477.90821     -830558.73     -842514.25      11955.525     -829853.72      10.248635      387.21204      2917143.9              0 
   1702000   1700.2         477.737       -830561.55     -842512.79      11951.242     -829837.22      10.248688      397.82659      2917128.8              0 
   1702010   1700.201       477.57697     -830564.25     -842511.49      11947.238     -829826.74      10.248724      405.06075      2917118.7              0 
   1702020   1700.202       477.43047     -830566.82     -842510.39      11943.573     -829822.19      10.248741      408.97453      2917113.8              0 
   1702030   1700.203       477.29948     -830569.26     -842509.56      11940.297     -829823.95      10.24874       409.35205      2917114.2              0 
   1702040   1700.204       477.1856      -830571.58     -842509.02      11937.448     -829831.86      10.24872       406.27803      2917119.7              0 
   1702050   1700.205       477.08991     -830573.75     -842508.81      11935.054     -829846.09      10.248683      399.65653      2917130.4              0 
   1702060   1700.206       477.01309     -830575.79     -842508.92      11933.132     -829866.73      10.248627      389.43456      2917146.2              0 
   1702070   1700.207       476.95528     -830577.69     -842509.37      11931.686     -829893.81      10.248554      375.60337      2917166.9              0 
   1702080   1700.208       476.91613     -830579.44     -842510.14      11930.707     -829926.79      10.248465      358.44556      2917192.4              0 
   1702090   1700.209       476.89485     -830581.04     -842511.21      11930.174     -829965.43      10.24836       338.09945      2917222.4              0 
   1702100   1700.21        476.8903      -830582.48     -842512.55      11930.06      -830009.26      10.248239      314.81924      2917256.6              0 
   1702110   1700.211       476.90094     -830583.78     -842514.1       11930.327     -830058.09      10.248105      288.70844      2917294.9              0 
   1702120   1700.212       476.92496     -830584.91     -842515.83      11930.927     -830111.46      10.247958      260.01102      2917336.7              0 
   1702130   1700.213       476.96034     -830585.87     -842517.68      11931.813     -830168.72      10.247799      229.09061      2917381.8              0 
   1702140   1700.214       477.0049      -830586.67     -842519.59      11932.927     -830229.27      10.247631      196.27513      2917429.8              0 
   1702150   1700.215       477.05641     -830587.29     -842521.51      11934.216     -830292.51      10.247454      161.88256      2917480.3              0 
   1702160   1700.216       477.11253     -830587.74     -842523.36      11935.62      -830357.77      10.247269      126.28512      2917532.7              0 
   1702170   1700.217       477.1709      -830588        -842525.08      11937.08      -830424.17      10.24708       89.964685      2917586.7              0 
   1702180   1700.218       477.22922     -830588.08     -842526.62      11938.539     -830490.91      10.246887      53.359064      2917641.7              0 
   1702190   1700.219       477.28536     -830587.97     -842527.91      11939.943     -830557.03      10.246691      16.991079      2917697.4              0 
   1702200   1700.22        477.33743     -830587.67     -842528.91      11941.246     -830621.7       10.246495     -18.687949      2917753.2              0 
   1702210   1700.221       477.3839      -830587.17     -842529.57      11942.409     -830684.41      10.2463       -53.398097      2917808.7              0 
   1702220   1700.222       477.42358     -830586.46     -842529.87      11943.401     -830744.36      10.246108     -86.700782      2917863.5              0 
   1702230   1700.223       477.45561     -830585.56     -842529.76      11944.203     -830801.29      10.24592      -118.45614      2917917.1              0 
   1702240   1700.224       477.47955     -830584.44     -842529.24      11944.801     -830854.35      10.245737     -148.20083      2917969.1              0 
   1702250   1700.225       477.49523     -830583.11     -842528.31      11945.194     -830903.18      10.245561     -175.73744      2918019.2              0 
   1702260   1700.226       477.50281     -830581.57     -842526.95      11945.383     -830946.94      10.245393     -200.61036      2918066.9              0 
   1702270   1700.227       477.50276     -830579.81     -842525.19      11945.382     -830985.23      10.245235     -222.59637      2918112.1              0 
   1702280   1700.228       477.4958      -830577.83     -842523.03      11945.208     -831017.79      10.245087     -241.55736      2918154.3              0 
   1702290   1700.229       477.48291     -830575.62     -842520.51      11944.885     -831044.22      10.244949     -257.27577      2918193.5              0 
   1702300   1700.23        477.46525     -830573.19     -842517.63      11944.444     -831064.46      10.244824     -269.71801      2918229.2              0 
   1702310   1700.231       477.44409     -830570.53     -842514.45      11943.914     -831078.56      10.24471      -278.91702      2918261.6              0 
   1702320   1700.232       477.42082     -830567.65     -842510.98      11943.332     -831086.26      10.244609     -284.72005      2918290.3              0 
   1702330   1700.233       477.39688     -830564.54     -842507.27      11942.733     -831087.41      10.244521     -287.05991      2918315.3              0 
   1702340   1700.234       477.37376     -830561.2      -842503.36      11942.155     -831082.62      10.244446     -286.25773      2918336.7              0 
   1702350   1700.235       477.35293     -830557.64     -842499.27      11941.634     -831071.94      10.244384     -282.34833      2918354.4              0 
   1702360   1700.236       477.33586     -830553.85     -842495.06      11941.207     -831055.35      10.244335     -275.31839      2918368.4              0 
   1702370   1700.237       477.32399     -830549.85     -842490.75      11940.91      -831032.96      10.244298     -265.23022      2918379                0 
   1702380   1700.238       477.31873     -830545.62     -842486.4       11940.778     -831005.35      10.244273     -252.38975      2918386.2              0 
   1702390   1700.239       477.32149     -830541.18     -842482.03      11940.847     -830972.94      10.244259     -237.03638      2918390.1              0 
   1702400   1700.24        477.33364     -830536.53     -842477.68      11941.151     -830936.29      10.244256     -219.46571      2918391                0 
   1702410   1700.241       477.35654     -830531.68     -842473.4       11941.724     -830895.57      10.244262     -199.77269      2918389.1              0 
   1702420   1700.242       477.39148     -830526.63     -842469.22      11942.598     -830851.57      10.244278     -178.39435      2918384.7              0 
   1702430   1700.243       477.43968     -830521.38     -842465.19      11943.804     -830804.54      10.244301     -155.45165      2918378                0 
   1702440   1700.244       477.50225     -830515.96     -842461.33      11945.369     -830755.2       10.244332     -131.34252      2918369.4              0 
   1702450   1700.245       477.58023     -830510.35     -842457.67      11947.32      -830703.88      10.244368     -106.24414      2918359                0 
   1702460   1700.246       477.67451     -830504.58     -842454.26      11949.678     -830651.02      10.244409     -80.393183      2918347.4              0 
   1702470   1700.247       477.78586     -830498.65     -842451.11      11952.464     -830597.21      10.244453     -54.107491      2918334.7              0 
   1702480   1700.248       477.91484     -830492.56     -842448.25      11955.691     -830542.8       10.2445       -27.580344      2918321.4              0 
   1702490   1700.249       478.06186     -830486.33     -842445.7       11959.369     -830488.34      10.244548     -1.1031212      2918307.7              0 
   1702500   1700.25        478.22715     -830479.97     -842443.47      11963.504     -830434.21      10.244596      25.123193      2918294                0 
   1702510   1700.251       478.41067     -830473.47     -842441.57      11968.094     -830380.85      10.244643      50.85108       2918280.7              0 
   1702520   1700.252       478.61213     -830466.86     -842439.99      11973.134     -830328.64      10.244687      75.886825      2918268.1              0 
   1702530   1700.253       478.83095     -830460.13     -842438.74      11978.608     -830278.19      10.244728      99.890086      2918256.4              0 
   1702540   1700.254       479.06614     -830453.3      -842437.79      11984.492     -830230.2       10.244765      122.48636      2918246                0 
   1702550   1700.255       479.31634     -830446.37     -842437.12      11990.751     -830185.09      10.244796      143.44921      2918237.2              0 
   1702560   1700.256       479.57979     -830439.35     -842436.69      11997.342     -830142.86      10.24482       162.77602      2918230.2              0 
   1702570   1700.257       479.85433     -830432.24     -842436.45      12004.21      -830103.62      10.244838      180.41982      2918225.3              0 
   1702580   1700.258       480.13758     -830425.05     -842436.35      12011.296     -830067.7       10.244847      196.19623      2918222.7              0 
   1702590   1700.259       480.42686     -830417.79     -842436.32      12018.532     -830035.44      10.244847      209.92021      2918222.6              0 
   1702600   1700.26        480.71936     -830410.46     -842436.31      12025.85      -830006.36      10.244838      221.86309      2918225.2              0 
   1702610   1700.261       481.01209     -830403.07     -842436.24      12033.173     -829980.88      10.244819      231.78836      2918230.6              0 
   1702620   1700.262       481.30198     -830395.61     -842436.04      12040.425     -829958.79      10.24479       239.82239      2918238.9              0 
   1702630   1700.263       481.58597     -830388.1      -842435.63      12047.529     -829940.64      10.24475       245.66734      2918250.3              0 
   1702640   1700.264       481.86113     -830380.54     -842434.95      12054.412     -829926.18      10.244699      249.45186      2918264.8              0 
   1702650   1700.265       482.12463     -830372.92     -842433.93      12061.004     -829915.29      10.244637      251.24588      2918282.4              0 
   1702660   1700.266       482.37387     -830365.27     -842432.5       12067.239     -829907.9       10.244564      251.09573      2918303.3              0 
   1702670   1700.267       482.60655     -830357.56     -842430.62      12073.06      -829903.97      10.244479      249.02191      2918327.3              0 
   1702680   1700.268       482.82078     -830349.82     -842428.24      12078.419     -829903.19      10.244384      245.1968       2918354.4              0 
   1702690   1700.269       483.0151      -830342.03     -842425.31      12083.281     -829905.46      10.244278      239.67428      2918384.7              0 
   1702700   1700.27        483.18859     -830334.21     -842421.83      12087.621     -829910.24      10.244161      232.75487      2918417.9              0 
   1702710   1700.271       483.34084     -830326.35     -842417.78      12091.43      -829917.6       10.244034      224.39597      2918454.1              0 
   1702720   1700.272       483.47198     -830318.45     -842413.17      12094.71      -829927.62      10.243897      214.56029      2918493.1              0 
   1702730   1700.273       483.58269     -830310.53     -842408.01      12097.48      -829939.88      10.243751      203.47277      2918534.8              0 
   1702740   1700.274       483.67418     -830302.56     -842402.33      12099.768     -829954.22      10.243596      191.2262       2918579                0 
   1702750   1700.275       483.74806     -830294.57     -842396.19      12101.617     -829970.65      10.243432      177.81317      2918625.6              0 
   1702760   1700.276       483.80631     -830286.54     -842389.62      12103.074     -829989.11      10.243261      163.27274      2918674.4              0 
   1702770   1700.277       483.85113     -830278.49     -842382.68      12104.195     -830009.42      10.243083      147.69718      2918725.2              0 
   1702780   1700.278       483.88498     -830270.4      -842375.44      12105.042     -830031.34      10.242898      131.22178      2918777.8              0 
   1702790   1700.279       483.91048     -830262.28     -842367.96      12105.68      -830054.83      10.242708      113.87108      2918832                0 
   1702800   1700.28        483.93035     -830254.13     -842360.31      12106.177     -830079.35      10.242513      95.936725      2918887.7              0 
   1702810   1700.281       483.94724     -830245.95     -842352.55      12106.6       -830105.03      10.242313      77.35102       2918944.4              0 
   1702820   1700.282       483.96379     -830237.74     -842344.75      12107.014     -830131.69      10.242111      58.208269      2919002.1              0 
   1702830   1700.283       483.98249     -830229.5      -842336.98      12107.481     -830159.53      10.241906      38.404757      2919060.4              0 
   1702840   1700.284       484.0056      -830221.23     -842329.29      12108.059     -830188.2       10.2417        18.125504      2919119.2              0 
   1702850   1700.285       484.03509     -830212.93     -842321.72      12108.797     -830217.59      10.241494     -2.5573993      2919178                0 
   1702860   1700.286       484.07258     -830204.6      -842314.33      12109.735     -830247.45      10.241288     -23.520201      2919236.8              0 
   1702870   1700.287       484.11931     -830196.24     -842307.14      12110.904     -830277.59      10.241083     -44.650893      2919295.2              0 
   1702880   1700.288       484.17611     -830187.85     -842300.17      12112.325     -830307.71      10.24088      -65.783151      2919352.9              0 
   1702890   1700.289       484.24347     -830179.43     -842293.44      12114.01      -830337.41      10.240681     -86.700259      2919409.7              0 
   1702900   1700.29        484.32143     -830170.98     -842286.94      12115.96      -830366.64      10.240486     -107.37811      2919465.3              0 
   1702910   1700.291       484.40965     -830162.5      -842280.66      12118.167     -830394.98      10.240296     -127.58422      2919519.5              0 
   1702920   1700.292       484.50741     -830153.99     -842274.6       12120.613     -830421.78      10.240112     -146.95694      2919572                0 
   1702930   1700.293       484.61364     -830145.45     -842268.72      12123.27      -830446.96      10.239935     -165.45383      2919622.4              0 
   1702940   1700.294       484.72704     -830136.89     -842262.99      12126.107     -830470.46      10.239765     -183.05175      2919670.8              0 
   1702950   1700.295       484.84604     -830128.29     -842257.38      12129.084     -830492.36      10.239605     -199.778        2919716.6              0 
   1702960   1700.296       484.96896     -830119.67     -842251.83      12132.159     -830512.32      10.239453     -215.45951      2919759.9              0 
   1702970   1700.297       485.09403     -830111.02     -842246.31      12135.288     -830530.31      10.239311     -230.07709      2919800.4              0 
   1702980   1700.298       485.2195      -830102.34     -842240.77      12138.427     -830545.57      10.23918      -243.20751      2919837.8              0 
   1702990   1700.299       485.34375     -830093.64     -842235.18      12141.535     -830558.32      10.239059     -254.97557      2919872.1              0 
   1703000   1700.3         485.46533     -830084.91     -842229.49      12144.577     -830568.36      10.238951     -265.27413      2919903.1              0 
   1703010   1700.301       485.583       -830076.16     -842223.68      12147.52      -830575.55      10.238854     -274.01991      2919930.7              0 
   1703020   1700.302       485.69576     -830067.37     -842217.72      12150.341     -830579.53      10.23877      -281.01783      2919954.7              0 
   1703030   1700.303       485.80289     -830058.57     -842211.59      12153.021     -830580.09      10.238698     -286.1572       2919975.1              0 
   1703040   1700.304       485.90403     -830049.73     -842205.29      12155.551     -830576.91      10.23864      -289.25524      2919991.8              0 
   1703050   1700.305       485.99923     -830040.88     -842198.81      12157.933     -830569.79      10.238594     -290.20967      2920004.8              0 
   1703060   1700.306       486.08895     -830032        -842192.17      12160.177     -830559.13      10.238561     -289.23343      2920014.1              0 
   1703070   1700.307       486.17397     -830023.09     -842185.39      12162.304     -830544.32      10.238542     -285.99245      2920019.7              0 
   1703080   1700.308       486.25534     -830014.16     -842178.5       12164.34      -830525.76      10.238535     -280.70715      2920021.6              0 
   1703090   1700.309       486.33445     -830005.2      -842171.52      12166.319     -830503.49      10.238541     -273.40422      2920020                0 
   1703100   1700.31        486.41298     -829996.22     -842164.5       12168.283     -830477.43      10.238559     -264.03627      2920014.9              0 
   1703110   1700.311       486.49285     -829987.22     -842157.5       12170.281     -830447.65      10.238589     -252.63445      2920006.4              0 
   1703120   1700.312       486.5762      -829978.19     -842150.55      12172.366     -830414.6       10.23863      -239.45826      2919994.7              0 
   1703130   1700.313       486.66537     -829969.13     -842143.73      12174.597     -830378.11      10.238681     -224.40366      2919980                0 
   1703140   1700.314       486.76275     -829960.05     -842137.09      12177.033     -830338.58      10.238743     -207.69961      2919962.4              0 
   1703150   1700.315       486.87069     -829950.95     -842130.68      12179.733     -830296.24      10.238813     -189.46404      2919942.2              0 
   1703160   1700.316       486.99148     -829941.82     -842124.57      12182.755     -830251.16      10.238893     -169.73715      2919919.7              0 
   1703170   1700.317       487.1272      -829932.66     -842118.81      12186.15      -830203.86      10.238979     -148.81163      2919895                0 
   1703180   1700.318       487.27968     -829923.48     -842113.45      12189.965     -830154.75      10.239072     -126.90203      2919868.4              0 
   1703190   1700.319       487.45047     -829914.27     -842108.51      12194.237     -830104.38      10.239171     -104.31563      2919840.3              0 
   1703200   1700.32        487.64076     -829905.04     -842104.04      12198.998     -830053.17      10.239274     -81.284217      2919810.9              0 
   1703210   1700.321       487.85136     -829895.78     -842100.05      12204.266     -830001.46      10.239381     -57.98685       2919780.5              0 
   1703220   1700.322       488.08258     -829886.5      -842096.55      12210.05      -829949.2       10.23949      -34.406479      2919749.4              0 
   1703230   1700.323       488.33424     -829877.19     -842093.53      12216.346     -829896.63      10.2396       -10.670548      2919718                0 
   1703240   1700.324       488.60575     -829867.85     -842090.99      12223.138     -829844.16      10.239711      13.00186       2919686.4              0 
   1703250   1700.325       488.89604     -829858.49     -842088.89      12230.4       -829791.72      10.23982       36.637668      2919655.1              0 
   1703260   1700.326       489.20361     -829849.1      -842087.19      12238.095     -829739.62      10.239929      60.07663       2919624.3              0 
   1703270   1700.327       489.52639     -829839.68     -842085.85      12246.17      -829687.72      10.240034      83.392472      2919594.3              0 
   1703280   1700.328       489.86187     -829830.24     -842084.8       12254.562     -829636.43      10.240135      106.35675      2919565.4              0 
   1703290   1700.329       490.20711     -829820.77     -842083.97      12263.198     -829586.16      10.240231      128.7526       2919537.9              0 
   1703300   1700.33        490.55881     -829811.28     -842083.28      12271.997     -829537.31      10.240322      150.35133      2919512.1              0 
   1703310   1700.331       490.91347     -829801.77     -842082.63      12280.869     -829489.83      10.240406      171.18767      2919488.2              0 
   1703320   1700.332       491.26744     -829792.22     -842081.95      12289.724     -829444.08      10.240481      191.05799      2919466.6              0 
   1703330   1700.333       491.61702     -829782.66     -842081.13      12298.469     -829399.95      10.240549      210.03155      2919447.5              0 
   1703340   1700.334       491.9586      -829773.07     -842080.09      12307.014     -829358.02      10.240606      227.7776       2919431                0 
   1703350   1700.335       492.28869     -829763.46     -842078.73      12315.272     -829317.81      10.240654      244.57038      2919417.5              0 
   1703360   1700.336       492.60407     -829753.82     -842076.99      12323.162     -829279.8       10.24069       260.14785      2919407.1              0 
   1703370   1700.337       492.90181     -829744.17     -842074.78      12330.61      -829243.54      10.240715      274.74684      2919400.1              0 
   1703380   1700.338       493.17941     -829734.49     -842072.04      12337.555     -829209.22      10.240727      288.26723      2919396.6              0 
   1703390   1700.339       493.43475     -829724.79     -842068.73      12343.942     -829176.63      10.240727      300.83171      2919396.7              0 
   1703400   1700.34        493.66621     -829715.07     -842064.8       12349.733     -829146.05      10.240713      312.27891      2919400.7              0 
   1703410   1700.341       493.8727      -829705.32     -842060.22      12354.898     -829117.7       10.240685      322.48644      2919408.7              0 
   1703420   1700.342       494.05367     -829695.56     -842054.99      12359.425     -829091.31      10.240642      331.61285      2919420.7              0 
   1703430   1700.343       494.20917     -829685.78     -842049.09      12363.316     -829067.09      10.240585      339.53317      2919437                0 
   1703440   1700.344       494.33984     -829675.97     -842042.56      12366.585     -829045.21      10.240513      346.15949      2919457.6              0 
   1703450   1700.345       494.44681     -829666.15     -842035.41      12369.261     -829026.02      10.240426      351.29344      2919482.5              0 
   1703460   1700.346       494.53168     -829656.3      -842027.69      12371.384     -829009.67      10.240323      354.86078      2919511.9              0 
   1703470   1700.347       494.59648     -829646.44     -842019.45      12373.005     -828996.55      10.240204      356.6441       2919545.8              0 
   1703480   1700.348       494.64357     -829636.56     -842010.74      12374.183     -828986.57      10.240069      356.69134      2919584.1              0 
   1703490   1700.349       494.67557     -829626.65     -842001.64      12374.983     -828979.95      10.239919      354.88527      2919627                0 
   1703500   1700.35        494.6953      -829616.73     -841992.2       12375.477     -828977         10.239753      351.04984      2919674.3              0 
   1703510   1700.351       494.70569     -829606.78     -841982.52      12375.737     -828978.38      10.239572      344.8326       2919725.9              0 
   1703520   1700.352       494.70976     -829596.82     -841972.65      12375.839     -828984.21      10.239375      336.15566      2919782                0 
   1703530   1700.353       494.71046     -829586.83     -841962.68      12375.856     -828994         10.239164      325.29475      2919842.2              0 
   1703540   1700.354       494.71066     -829576.82     -841952.68      12375.861     -829007.8       10.238939      312.22485      2919906.4              0 
   1703550   1700.355       494.7131      -829566.79     -841942.71      12375.922     -829025.42      10.2387        297.04592      2919974.5              0 
   1703560   1700.356       494.72043     -829556.73     -841932.84      12376.105     -829046.96      10.238449      279.70619      2920046.3              0 
   1703570   1700.357       494.73509     -829546.66     -841923.13      12376.472     -829072.28      10.238185      260.27353      2920121.5              0 
   1703580   1700.358       494.75934     -829536.56     -841913.64      12377.079     -829101.14      10.23791       238.89478      2920200                0 
   1703590   1700.359       494.79514     -829526.43     -841904.41      12377.974     -829133.57      10.237625      215.54158      2920281.3              0 
   1703600   1700.36        494.84417     -829516.29     -841895.49      12379.201     -829169.52      10.237331      190.24359      2920365.2              0 
   1703610   1700.361       494.90789     -829506.11     -841886.91      12380.795     -829208.91      10.237028      163.04781      2920451.4              0 
   1703620   1700.362       494.98741     -829495.92     -841878.7       12382.784     -829251.49      10.23672       134.09211      2920539.5              0 
   1703630   1700.363       495.08354     -829485.69     -841870.88      12385.189     -829297.12      10.236406      103.44434      2920629.1              0 
   1703640   1700.364       495.19687     -829475.45     -841863.47      12388.024     -829345.07      10.236087      71.520278      2920719.9              0 
   1703650   1700.365       495.32772     -829465.17     -841856.47      12391.298     -829395.03      10.235767      38.479091      2920811.3              0 
   1703660   1700.366       495.47609     -829454.87     -841849.88      12395.009     -829446.56      10.235445      4.559407       2920903.1              0 
   1703670   1700.367       495.64169     -829444.55     -841843.7       12399.152     -829499.33      10.235124     -30.048005      2920994.7              0 
   1703680   1700.368       495.82392     -829434.2      -841837.91      12403.711     -829553.26      10.234805     -65.306321      2921085.8              0 
   1703690   1700.369       496.0219      -829423.82     -841832.48      12408.663     -829607.2       10.23449      -100.577        2921175.7              0 
   1703700   1700.37        496.23447     -829413.42     -841827.4       12413.981     -829660.56      10.23418      -135.54643      2921264.2              0 
   1703710   1700.371       496.46017     -829402.99     -841822.61      12419.627     -829712.8       10.233877     -169.91273      2921350.8              0 
   1703720   1700.372       496.69721     -829392.53     -841818.09      12425.557     -829763.13      10.233582     -203.24196      2921434.9              0 
   1703730   1700.373       496.94351     -829382.05     -841813.77      12431.719     -829810.82      10.233297     -235.14207      2921516.2              0 
   1703740   1700.374       497.19673     -829371.54     -841809.6       12438.054     -829855.17      10.233023     -265.21617      2921594.4              0 
   1703750   1700.375       497.45425     -829361.01     -841805.51      12444.496     -829895.79      10.232762     -293.26076      2921668.9              0 
   1703760   1700.376       497.71313     -829350.46     -841801.43      12450.972     -829932.16      10.232515     -318.98555      2921739.5              0 
   1703770   1700.377       497.97024     -829339.88     -841797.29      12457.404     -829963.6       10.232283     -342.01605      2921805.8              0 
   1703780   1700.378       498.22226     -829329.28     -841792.99      12463.708     -829989.33      10.232066     -361.92918      2921867.6              0 
   1703790   1700.379       498.46578     -829318.66     -841788.46      12469.8       -830009.11      10.231867     -378.59737      2921924.6              0 
   1703800   1700.38        498.69733     -829308.01     -841783.6       12475.593     -830022.53      10.231685     -391.78507      2921976.6              0 
   1703810   1700.381       498.9135      -829297.34     -841778.34      12481.001     -830029.3       10.231521     -401.33871      2922023.5              0 
   1703820   1700.382       499.1109      -829286.66     -841772.59      12485.939     -830029.14      10.231375     -407.10869      2922065.1              0 
   1703830   1700.383       499.28626     -829275.95     -841766.27      12490.326     -830022.37      10.231248     -409.26166      2922101.4              0 
   1703840   1700.384       499.43666     -829265.22     -841759.31      12494.088     -830008.76      10.231139     -407.6745       2922132.4              0 
   1703850   1700.385       499.55959     -829254.47     -841751.63      12497.164     -829988.36      10.231049     -402.38041      2922158.1              0 
   1703860   1700.386       499.65304     -829243.7      -841743.21      12499.501     -829961.29      10.230978     -393.44158      2922178.6              0 
   1703870   1700.387       499.71556     -829232.92     -841733.98      12501.065     -829927.69      10.230924     -380.93027      2922194                0 
   1703880   1700.388       499.74643     -829222.11     -841723.95      12501.838     -829887.94      10.230887     -365.05999      2922204.5              0 
   1703890   1700.389       499.74573     -829211.29     -841713.11      12501.82      -829841.96      10.230867     -345.78238      2922210.3              0 
   1703900   1700.39        499.71443     -829200.45     -841701.48      12501.037     -829790.36      10.230862     -323.4339       2922211.7              0 
   1703910   1700.391       499.65439     -829189.59     -841689.12      12499.535     -829733.43      10.230871     -298.17869      2922208.9              0 
   1703920   1700.392       499.56844     -829178.71     -841676.09      12497.385     -829672.19      10.230894     -270.56735      2922202.4              0 
   1703930   1700.393       499.46033     -829167.81     -841662.49      12494.681     -829606.94      10.230929     -240.76345      2922192.4              0 
   1703940   1700.394       499.33454     -829156.89     -841648.43      12491.534     -829538.23      10.230975     -209.07984      2922179.4              0 
   1703950   1700.395       499.19633     -829145.96     -841634.03      12488.076     -829466.79      10.231029     -175.90704      2922163.8              0 
   1703960   1700.396       499.05164     -829135        -841619.46      12484.457     -829393.4       10.231092     -141.67482      2922146                0 
   1703970   1700.397       498.907       -829124.03     -841604.87      12480.838     -829319.04      10.23116      -106.92201      2922126.4              0 
   1703980   1700.398       498.76928     -829113.03     -841590.43      12477.393     -829244.33      10.231234     -71.990997      2922105.5              0 
   1703990   1700.399       498.64559     -829102.02     -841576.32      12474.299     -829170.3       10.23131      -37.439776      2922083.7              0 
   1704000   1700.4         498.54308     -829090.98     -841562.71      12471.734     -829097.8       10.231387     -3.7379674      2922061.5              0 
   1704010   1700.401       498.46878     -829079.92     -841549.8       12469.876     -829027.51      10.231465      28.737891      2922039.4              0 
   1704020   1700.402       498.42949     -829068.84     -841537.73      12468.893     -828960.61      10.231541      59.344232      2922017.7              0 
   1704030   1700.403       498.43149     -829057.74     -841526.68      12468.943     -828897.51      10.231614      87.853412      2921996.7              0 
   1704040   1700.404       498.48035     -829046.61     -841516.77      12470.165     -828839.13      10.231683      113.76155      2921977                0 
   1704050   1700.405       498.58088     -829035.46     -841508.14      12472.68      -828785.99      10.231747      136.78956      2921958.8              0 
   1704060   1700.406       498.7369      -829024.28     -841500.86      12476.583     -828738.24      10.231805      156.84526      2921942.4              0 
   1704070   1700.407       498.95114     -829013.08     -841495.02      12481.942     -828696.03      10.231855      173.84954      2921928                0 
   1704080   1700.408       499.22521     -829001.85     -841490.65      12488.799     -828659.61      10.231898      187.66409      2921915.9              0 
   1704090   1700.409       499.55956     -828990.6      -841487.76      12497.163     -828629.52      10.231931      197.98963      2921906.2              0 
   1704100   1700.41        499.95336     -828979.32     -841486.33      12507.014     -828605.39      10.231956      205.03937      2921899                0 
   1704110   1700.411       500.40461     -828968.01     -841486.32      12518.303     -828586.82      10.231972      209.02091      2921894.5              0 
   1704120   1700.412       500.91013     -828956.68     -841487.63      12530.949     -828573.96      10.231979      209.85741      2921892.7              0 
   1704130   1700.413       501.46567     -828945.32     -841490.17      12544.847     -828566.39      10.231976      207.77942      2921893.6              0 
   1704140   1700.414       502.06592     -828933.93     -841493.79      12559.863     -828563.53      10.231963      203.10489      2921897.1              0 
   1704150   1700.415       502.70464     -828922.51     -841498.35      12575.841     -828565.06      10.231942      196.00245      2921903.1              0 
   1704160   1700.416       503.37485     -828911.07     -841503.68      12592.607     -828570.34      10.231912      186.83307      2921911.7              0 
   1704170   1700.417       504.06894     -828899.6      -841509.57      12609.971     -828578.71      10.231874      175.9494       2921922.6              0 
   1704180   1700.418       504.77879     -828888.1      -841515.83      12627.729     -828589.38      10.231828      163.79516      2921935.7              0 
   1704190   1700.419       505.49599     -828876.57     -841522.24      12645.671     -828601.57      10.231775      150.78784      2921950.9              0 
   1704200   1700.42        506.21208     -828865.02     -841528.6       12663.585     -828614.55      10.231715      137.33483      2921968                0 
   1704210   1700.421       506.91883     -828853.44     -841534.7       12681.265     -828627.83      10.231649      123.70368      2921986.8              0 
   1704220   1700.422       507.60824     -828841.83     -841540.34      12698.512     -828640.69      10.231578      110.28702      2922007.1              0 
   1704230   1700.423       508.27274     -828830.2      -841545.33      12715.135     -828652.73      10.231502      97.308738      2922028.7              0 
   1704240   1700.424       508.90535     -828818.54     -841549.5       12730.961     -828663.2       10.231423      85.177104      2922051.5              0 
   1704250   1700.425       509.49979     -828806.86     -841552.7       12745.831     -828671.64      10.231339      74.142811      2922075.4              0 
   1704260   1700.426       510.05068     -828795.16     -841554.78      12759.613     -828677.64      10.231253      64.439651      2922100.1              0 
   1704270   1700.427       510.55359     -828783.44     -841555.63      12772.193     -828680.89      10.231163      56.22697       2922125.6              0 
   1704280   1700.428       511.00515     -828771.69     -841555.18      12783.49      -828681.07      10.231072      49.689099      2922151.7              0 
   1704290   1700.429       511.40306     -828759.93     -841553.37      12793.444     -828678.01      10.230978      44.916013      2922178.4              0 
   1704300   1700.43        511.74623     -828748.14     -841550.17      12802.029     -828671.66      10.230883      41.934554      2922205.5              0 
   1704310   1700.431       512.03472     -828736.34     -841545.58      12809.246     -828661.84      10.230787      40.846299      2922233.2              0 
   1704320   1700.432       512.26966     -828724.52     -841539.64      12815.123     -828648.92      10.230688      41.446656      2922261.3              0 
   1704330   1700.433       512.45328     -828712.67     -841532.39      12819.717     -828632.91      10.230588      43.732398      2922289.8              0 
   1704340   1700.434       512.58887     -828700.82     -841523.92      12823.109     -828614.23      10.230487      47.469628      2922318.8              0 
   1704350   1700.435       512.68056     -828688.94     -841514.34      12825.403     -828593.38      10.230383      52.392311      2922348.3              0 
   1704360   1700.436       512.73322     -828677.04     -841503.76      12826.72      -828570.92      10.230278      58.182628      2922378.4              0 
   1704370   1700.437       512.75232     -828665.13     -841492.33      12827.198     -828547.58      10.23017       64.448293      2922409.2              0 
   1704380   1700.438       512.74381     -828653.21     -841480.19      12826.985     -828523.25      10.23006       71.243005      2922440.7              0 
   1704390   1700.439       512.71393     -828641.26     -841467.5       12826.237     -828498.61      10.229947      78.206109      2922473                0 
   1704400   1700.44        512.66903     -828629.3      -841454.41      12825.114     -828473.97      10.229831      85.155764      2922506.2              0 
   1704410   1700.441       512.61547     -828617.32     -841441.09      12823.774     -828449.96      10.229711      91.745969      2922540.4              0 
   1704420   1700.442       512.55953     -828605.32     -841427.69      12822.375     -828427.25      10.229587      97.617649      2922575.7              0 
   1704430   1700.443       512.5073      -828593.3      -841414.37      12821.068     -828406.56      10.22946       102.37302      2922612.1              0 
   1704440   1700.444       512.46453     -828581.26     -841401.26      12819.998     -828388.29      10.229328      105.78633      2922649.7              0 
   1704450   1700.445       512.43659     -828569.21     -841388.51      12819.299     -828373.1       10.229192      107.50601      2922688.6              0 
   1704460   1700.446       512.42842     -828557.13     -841376.23      12819.095     -828361.18      10.229052      107.41804      2922728.7              0 
   1704470   1700.447       512.44448     -828545.04     -841364.54      12819.497     -828352.71      10.228907      105.43041      2922770                0 
   1704480   1700.448       512.48875     -828532.92     -841353.53      12820.604     -828348.26      10.228758      101.22223      2922812.6              0 
   1704490   1700.449       512.56454     -828520.78     -841343.28      12822.5       -828347.98      10.228605      94.720585      2922856.3              0 
   1704500   1700.45        512.6746      -828508.62     -841333.88      12825.253     -828352.11      10.228448      85.790297      2922901.1              0 
   1704510   1700.451       512.82106     -828496.44     -841325.36      12828.917     -828360.71      10.228288      74.399477      2922946.9              0 
   1704520   1700.452       513.00545     -828484.23     -841317.76      12833.53      -828373.62      10.228125      60.626031      2922993.5              0 
   1704530   1700.453       513.22858     -828472        -841311.11      12839.112     -828390.64      10.22796       44.595848      2923040.7              0 
   1704540   1700.454       513.49061     -828459.74     -841305.41      12845.667     -828411.74      10.227794      26.312548      2923088.3              0 
   1704550   1700.455       513.79117     -828447.46     -841300.65      12853.186     -828436.45      10.227626      6.0366002      2923136.1              0 
   1704560   1700.456       514.12924     -828435.15     -841296.8       12861.643     -828464.37      10.227459     -16.014562      2923183.8              0 
   1704570   1700.457       514.50319     -828422.82     -841293.82      12870.998     -828494.98      10.227294     -39.552765      2923231.2              0 
   1704580   1700.458       514.91075     -828410.46     -841291.65      12881.194     -828527.29      10.22713      -64.030247      2923277.9              0 
   1704590   1700.459       515.34918     -828398.07     -841290.23      12892.162     -828560.81      10.22697      -89.191119      2923323.6              0 
   1704600   1700.46        515.81524     -828385.66     -841289.48      12903.821     -828594.52      10.226815     -114.46653      2923368.1              0 
   1704610   1700.461       516.30523     -828373.22     -841289.3       12916.079     -828627.83      10.226665     -139.53938      2923410.9              0 
   1704620   1700.462       516.81492     -828360.75     -841289.58      12928.829     -828659.65      10.226522     -163.80994      2923451.9              0 
   1704630   1700.463       517.33969     -828348.26     -841290.22      12941.957     -828689.7       10.226386     -187.11973      2923490.6              0 
   1704640   1700.464       517.87458     -828335.74     -841291.08      12955.338     -828717.29      10.22626      -209.09634      2923526.8              0 
   1704650   1700.465       518.41442     -828323.2      -841292.04      12968.843     -828741.51      10.226143     -229.24639      2923560.2              0 
   1704660   1700.466       518.95396     -828310.63     -841292.97      12982.34      -828761.85      10.226036     -247.27417      2923590.6              0 
   1704670   1700.467       519.48796     -828298.03     -841293.73      12995.699     -828777.5       10.225942     -262.75115      2923617.7              0 
   1704680   1700.468       520.01126     -828285.42     -841294.21      13008.79      -828787.96      10.225859     -275.40083      2923641.4              0 
   1704690   1700.469       520.5189      -828272.77     -841294.26      13021.489     -828792.42      10.225789     -284.7715       2923661.4              0 
   1704700   1700.47        521.00626     -828260.11     -841293.79      13033.681     -828790.84      10.225731     -290.84499      2923677.8              0 
   1704710   1700.471       521.4691      -828247.42     -841292.68      13045.26      -828782.66      10.225687     -293.31361      2923690.4              0 
   1704720   1700.472       521.90374     -828234.71     -841290.84      13056.133     -828767.89      10.225656     -292.18018      2923699.3              0 
   1704730   1700.473       522.30713     -828221.97     -841288.2       13066.224     -828746.18      10.225639     -287.26417      2923704.3              0 
   1704740   1700.474       522.67679     -828209.22     -841284.69      13075.472     -828717.9       10.225634     -278.7562       2923705.7              0 
   1704750   1700.475       523.01103     -828196.45     -841280.28      13083.833     -828682.93      10.225641     -266.58943      2923703.6              0 
   1704760   1700.476       523.30886     -828183.65     -841274.94      13091.284     -828641.32      10.225661     -250.79807      2923698                0 
   1704770   1700.477       523.57016     -828170.84     -841268.66      13097.821     -828593.42      10.225691     -231.5755       2923689.2              0 
   1704780   1700.478       523.79556     -828158        -841261.46      13103.459     -828539.47      10.225732     -209.04428      2923677.6              0 
   1704790   1700.479       523.98652     -828145.15     -841253.39      13108.236     -828479.72      10.225782     -183.34379      2923663.3              0 
   1704800   1700.48        524.14533     -828132.28     -841244.49      13112.209     -828414.68      10.22584      -154.75849      2923646.7              0 
   1704810   1700.481       524.27505     -828119.39     -841234.85      13115.454     -828344.95      10.225905     -123.60967      2923628.2              0 
   1704820   1700.482       524.37937     -828106.48     -841224.55      13118.064     -828270.65      10.225975     -89.968132      2923608.1              0 
   1704830   1700.483       524.4626      -828093.55     -841213.7       13120.146     -828192.72      10.226049     -54.346225      2923587                0 
   1704840   1700.484       524.5294      -828080.61     -841202.43      13121.817     -828111.99      10.226125     -17.199901      2923565.3              0 
   1704850   1700.485       524.58476     -828067.64     -841190.85      13123.202     -828029.13      10.226201      21.105405      2923543.4              0 
   1704860   1700.486       524.63393     -828054.66     -841179.09      13124.432     -827944.57      10.226277      60.331394      2923521.9              0 
   1704870   1700.487       524.68219     -828041.65     -841167.29      13125.64      -827859.63      10.226349      99.756959      2923501.2              0 
   1704880   1700.488       524.73476     -828028.63     -841155.59      13126.955     -827775.15      10.226417      138.91748      2923481.9              0 
[...]
   1715840   1701.584       1032.7456     -799362.4      -825197.94      25835.538     -798881.37      9.999511       257.77404      2989820.6              0 
   1715850   1701.585       1033.3208     -799321.2      -825171.12      25849.928     -798872.49      9.9990085      240.44095      2989970.8              0 
   1715860   1701.586       1033.9096     -799279.96     -825144.62      25864.657     -798866.97      9.9984993      221.29105      2990123.1              0 
   1715870   1701.587       1034.5135     -799238.69     -825118.46      25879.763     -798864.58      9.9979845      200.44813      2990277.1              0 
   1715880   1701.588       1035.1343     -799197.39     -825092.69      25895.294     -798865.75      9.9974652      177.68391      2990432.4              0 
   1715890   1701.589       1035.7743     -799156.06     -825067.36      25911.305     -798869.8       9.9969423      153.36063      2990588.8              0 
   1715900   1701.59        1036.436      -799114.69     -825042.55      25927.857     -798876.64      9.996417       127.52744      2990746                0 
   1715910   1701.591       1037.1216     -799073.29     -825018.3       25945.01      -798885.69      9.9958907      100.49447      2990903.4              0 
   1715920   1701.592       1037.8335     -799031.85     -824994.66      25962.818     -798897         9.9953644      72.232674      2991060.9              0 
   1715930   1701.593       1038.5734     -798990.37     -824971.7       25981.327     -798909.63      9.9948396      43.244659      2991218                0 
   1715940   1701.594       1039.3426     -798948.85     -824949.42      26000.57      -798922.99      9.9943176      13.850688      2991374.2              0 
   1715950   1701.595       1040.1419     -798907.3      -824927.87      26020.566     -798936.51      9.9937997     -15.643902      2991529.2              0 
   1715960   1701.596       1040.971      -798865.71     -824907.01      26041.308     -798949.93      9.9932872     -45.106855      2991682.6              0 
   1715970   1701.597       1041.8289     -798824.07     -824886.84      26062.768     -798962.08      9.9927815     -73.907298      2991834                0 
   1715980   1701.598       1042.7134     -798782.4      -824867.29      26084.897     -798972.52      9.9922837     -101.81171      2991983.1              0 
   1715990   1701.599       1043.6218     -798740.68     -824848.3       26107.622     -798980.88      9.9917952     -128.62091      2992129.4              0 
   1716000   1701.6         1044.5506     -798698.92     -824829.78      26130.857     -798986.41      9.9913169     -153.93194      2992272.6              0 
   1716010   1701.601       1045.4955     -798657.12     -824811.61      26154.493     -798988.79      9.9908501     -177.58134      2992412.4              0 
   1716020   1701.602       1046.4512     -798615.28     -824793.68      26178.403     -798987.09      9.9903956     -199.06338      2992548.6              0 
   1716030   1701.603       1047.412      -798573.4      -824775.83      26202.437     -798980.9       9.9899543     -218.16429      2992680.7              0 
   1716040   1701.604       1048.371      -798531.47     -824757.9       26226.429     -798969.37      9.9895269     -234.42345      2992808.8              0 
   1716050   1701.605       1049.3213     -798489.51     -824739.71      26250.202     -798952.18      9.9891142     -247.6764       2992932.4              0 
   1716060   1701.606       1050.2559     -798447.51     -824721.09      26273.582     -798929.55      9.9887164     -258.03574      2993051.6              0 
   1716070   1701.607       1051.1678     -798405.47     -824701.86      26296.395     -798900.97      9.988334      -265.23102      2993166.2              0 
   1716080   1701.608       1052.0506     -798363.39     -824681.87      26318.48      -798865.93      9.987967      -268.99086      2993276.2              0 
   1716090   1701.609       1052.8982     -798321.28     -824660.96      26339.684     -798823.87      9.9876156     -269.00564      2993381.5              0 
   1716100   1701.61        1053.7055     -798279.13     -824639.01      26359.879     -798774.51      9.9872795     -265.13602      2993482.2              0 
   1716110   1701.611       1054.4685     -798236.96     -824615.92      26378.966     -798717.85      9.9869585     -257.37738      2993578.4              0 
   1716120   1701.612       1055.1841     -798194.75     -824591.62      26396.868     -798653.97      9.986652      -245.76847      2993670.3              0 
   1716130   1701.613       1055.8505     -798152.52     -824566.06      26413.539     -798582.66      9.9863594     -230.19963      2993758                0 
   1716140   1701.614       1056.4669     -798110.26     -824539.21      26428.959     -798504.26      9.9860799     -210.85537      2993841.8              0 
   1716150   1701.615       1057.0335     -798067.97     -824511.1       26443.132     -798419.4       9.9858123     -188.06325      2993922.1              0 
   1716160   1701.616       1057.5515     -798025.66     -824481.75      26456.091     -798327.95      9.9855557     -161.76338      2993999                0 
   1716170   1701.617       1058.0232     -797983.33     -824451.22      26467.892     -798229.99      9.9853087     -131.99134      2994073.1              0 
   1716180   1701.618       1058.4517     -797940.98     -824419.59      26478.611     -798126.94      9.9850698     -99.509069      2994144.7              0 
   1716190   1701.619       1058.8409     -797898.61     -824386.95      26488.346     -798019.7       9.9848376     -64.793372      2994214.3              0 
   1716200   1701.62        1059.1954     -797856.22     -824353.43      26497.217     -797909.59      9.9846105     -28.560632      2994282.4              0 
   1716210   1701.621       1059.5209     -797813.81     -824319.17      26505.359     -797797.68      9.9843867      8.6314916      2994349.5              0 
   1716220   1701.622       1059.8233     -797771.38     -824284.3       26512.924     -797684.92      9.9841646      46.263121      2994416.2              0 
   1716230   1701.623       1060.109      -797728.94     -824249.01      26520.071     -797571.38      9.9839424      84.299077      2994482.8              0 
   1716240   1701.624       1060.3845     -797686.47     -824213.44      26526.963     -797457.9       9.9837185      122.29247      2994549.9              0 
   1716250   1701.625       1060.6565     -797643.99     -824177.76      26533.768     -797345.48      9.9834912      159.71076      2994618.1              0 
   1716260   1701.626       1060.9319     -797601.49     -824142.15      26540.656     -797234.48      9.9832588      196.35625      2994687.9              0 
   1716270   1701.627       1061.2173     -797558.98     -824106.77      26547.796     -797125.82      9.9830197      231.73537      2994759.6              0 
   1716280   1701.628       1061.5191     -797516.44     -824071.79      26555.346     -797020.76      9.9827724      265.18122      2994833.8              0 
   1716290   1701.629       1061.8431     -797473.88     -824037.34      26563.452     -796919.75      9.9825155      296.44368      2994910.8              0 
   1716300   1701.63        1062.1945     -797431.31     -824003.55      26572.241     -796824.05      9.9822477      324.85083      2994991.2              0 
   1716310   1701.631       1062.5777     -797388.71     -823970.53      26581.828     -796733.89      9.9819677      350.28286      2995075.2              0 
   1716320   1701.632       1062.9966     -797346.08     -823938.39      26592.308     -796649.32      9.9816746      372.7142       2995163.1              0 
   1716330   1701.633       1063.4543     -797303.43     -823907.19      26603.758     -796570.87      9.9813674      391.84954      2995255.3              0 
   1716340   1701.634       1063.9527     -797260.76     -823876.99      26616.227     -796498.62      9.9810455      407.66099      2995351.9              0 
   1716350   1701.635       1064.4931     -797218.06     -823847.8       26629.744     -796433.35      9.9807081      419.71685      2995453.2              0 
   1716360   1701.636       1065.0753     -797175.32     -823819.63      26644.31      -796375.11      9.9803551      427.99296      2995559.1              0 
   1716370   1701.637       1065.6987     -797132.56     -823792.47      26659.904     -796323.56      9.979986       432.67924      2995669.9              0 
   1716380   1701.638       1066.3615     -797089.77     -823766.25      26676.485     -796278.92      9.9796008      433.64814      2995785.5              0 
   1716390   1701.639       1067.0612     -797046.94     -823740.93      26693.99      -796240.5       9.9791997      431.27611      2995905.9              0 
   1716400   1701.64        1067.7941     -797004.08     -823716.4       26712.324     -796208.52      9.9787829      425.43916      2996031.1              0 
   1716410   1701.641       1068.5555     -796961.18     -823692.55      26731.37      -796183.44      9.9783508      415.89164      2996160.8              0 
   1716420   1701.642       1069.3397     -796918.24     -823669.23      26750.989     -796164.85      9.977904       402.85428      2996295                0 
   1716430   1701.643       1070.1406     -796875.27     -823646.3       26771.024     -796151.63      9.9774432      386.92918      2996433.4              0 
   1716440   1701.644       1070.9513     -796832.26     -823623.57      26791.305     -796143.47      9.9769692      368.27841      2996575.7              0 
   1716450   1701.645       1071.7648     -796789.22     -823600.87      26811.657     -796139.33      9.9764831      347.45475      2996721.7              0 
   1716460   1701.646       1072.5741     -796746.13     -823578.03      26831.901     -796138.12      9.9759859      325.05326      2996871.1              0 
   1716470   1701.647       1073.372      -796703.01     -823554.87      26851.862     -796139.17      9.9754788      301.42056      2997023.4              0 
   1716480   1701.648       1074.1518     -796659.85     -823531.22      26871.371     -796141.58      9.9749629      277.04676      2997178.5              0 
   1716490   1701.649       1074.9075     -796616.65     -823506.93      26890.276     -796145.09      9.9744394      252.06566      2997335.7              0 
   1716500   1701.65        1075.6342     -796573.42     -823481.87      26908.454     -796149.57      9.9739097      226.55013      2997494.9              0 
   1716510   1701.651       1076.3282     -796530.15     -823455.97      26925.816     -796154.92      9.9733748      200.54984      2997655.7              0 
   1716520   1701.652       1076.9875     -796486.85     -823429.16      26942.31      -796161.33      9.9728362      173.97436      2997817.6              0 
   1716530   1701.653       1077.6119     -796443.52     -823401.45      26957.93      -796169.09      9.972295       146.66286      2997980.3              0 
   1716540   1701.654       1078.2031     -796400.16     -823372.87      26972.718     -796177.57      9.9717526      118.94591      2998143.3              0 
   1716550   1701.655       1078.7644     -796356.76     -823343.52      26986.76      -796186.41      9.9712103      91.03103       2998306.4              0 
   1716560   1701.656       1079.3012     -796313.34     -823313.53      27000.191     -796195.68      9.9706693      62.869399      2998469.1              0 
   1716570   1701.657       1079.821      -796269.89     -823283.08      27013.193     -796205.18      9.9701309      34.57542       2998631                0 
   1716580   1701.658       1080.3326     -796226.41     -823252.4       27025.992     -796214.28      9.9695965      6.478367       2998791.7              0 
   1716590   1701.659       1080.8465     -796182.9      -823221.75      27038.848     -796222.95      9.9690673     -21.395915      2998950.9              0 
   1716600   1701.66        1081.3741     -796139.36     -823191.4       27052.046     -796231.45      9.9685446     -49.196832      2999108.2              0 
   1716610   1701.661       1081.9275     -796095.79     -823161.68      27065.889     -796239.92      9.9680295     -76.994855      2999263.2              0 
   1716620   1701.662       1082.5195     -796052.19     -823132.89      27080.699     -796248.53      9.9675232     -104.87642      2999415.5              0 
   1716630   1701.663       1083.163      -796008.55     -823105.35      27096.797     -796257.2       9.967027      -132.80985      2999564.8              0 
   1716640   1701.664       1083.8703     -795964.89     -823079.38      27114.492     -796265.55      9.966542      -160.59007      2999710.8              0 
   1716650   1701.665       1084.653      -795921.18     -823055.25      27134.073     -796273.77      9.9660693     -188.31208      2999853.1              0 
   1716660   1701.666       1085.5213     -795877.43     -823033.23      27155.795     -796281.42      9.9656101     -215.7565       2999991.3              0 
   1716670   1701.667       1086.484      -795833.64     -823013.52      27179.876     -796288.46      9.9651654     -242.88821      3000125.2              0 
   1716680   1701.668       1087.5477     -795789.81     -822996.29      27206.487     -796294.61      9.9647364     -269.5701       3000254.4              0 
   1716690   1701.669       1088.717      -795745.92     -822981.66      27235.739     -796298.55      9.964324      -295.10213      3000378.5              0 
   1716700   1701.67        1089.9938     -795701.98     -822969.66      27267.678     -796300.4       9.9639293     -319.53697      3000497.4              0 
   1716710   1701.671       1091.377      -795657.99     -822960.27      27302.283     -796299.81      9.963553      -342.69848      3000610.7              0 
   1716720   1701.672       1092.8629     -795613.94     -822953.4       27339.455     -796296.14      9.9631961     -364.247        3000718.2              0 
   1716730   1701.673       1094.4448     -795569.83     -822948.86      27379.028     -796288.35      9.9628592     -383.62513      3000819.7              0 
   1716740   1701.674       1096.113      -795525.66     -822946.42      27420.76      -796275.96      9.9625431     -400.57969      3000914.9              0 
   1716750   1701.675       1097.8552     -795481.43     -822945.77      27464.343     -796258.04      9.9622482     -414.61979      3001003.7              0 
   1716760   1701.676       1099.6565     -795437.13     -822946.53      27509.405     -796233.22      9.9619749     -425.00621      3001086                0 
   1716770   1701.677       1101.4996     -795392.77     -822948.28      27555.512     -796200.38      9.9617234     -431.14445      3001161.8              0 
   1716780   1701.678       1103.3653     -795348.34     -822950.52      27602.186     -796158.41      9.9614938     -432.44657      3001231                0 
   1716790   1701.679       1105.233      -795303.85     -822952.76      27648.91      -796106.59      9.9612858     -428.52541      3001293.6              0 
   1716800   1701.68        1107.0814     -795259.29     -822954.44      27695.148     -796044.83      9.9610991     -419.33319      3001349.9              0 
   1716810   1701.681       1108.8887     -795214.68     -822955.04      27740.361     -795972.42      9.960933      -404.49155      3001400                0 
   1716820   1701.682       1110.6338     -795170.01     -822954.03      27784.018     -795888.65      9.9607865     -383.61059      3001444.1              0 
   1716830   1701.683       1112.2964     -795125.28     -822950.89      27825.608     -795792.6       9.9606586     -356.2125       3001482.6              0 
   1716840   1701.684       1113.8574     -795080.5      -822945.16      27864.659     -795683.89      9.9605479     -322.08199      3001516                0 
   1716850   1701.685       1115.2996     -795035.68     -822936.42      27900.739     -795562.12      9.9604526     -281.00755      3001544.7              0 
   1716860   1701.686       1116.6084     -794990.81     -822924.29      27933.48      -795427.76      9.9603707     -233.23363      3001569.4              0 
   1716870   1701.687       1117.7723     -794945.91     -822908.51      27962.597     -795281.18      9.9603        -178.95658      3001590.7              0 
   1716880   1701.688       1118.7833     -794900.97     -822888.86      27987.888     -795123.38      9.9602379     -118.7143       3001609.4              0 
   1716890   1701.689       1119.6373     -794856.01     -822865.26      28009.253     -794955.26      9.9601817     -52.977637      3001626.3              0 
   1716900   1701.69        1120.3343     -794811.02     -822837.71      28026.689     -794778.25      9.9601284      17.492655      3001642.4              0 
   1716910   1701.691       1120.8783     -794766.01     -822806.31      28040.298     -794593.53      9.9600748      92.064662      3001658.6              0 
   1716920   1701.692       1121.2776     -794720.99     -822771.27      28050.285     -794402.81      9.9600176      169.82889      3001675.8              0 
   1716930   1701.693       1121.5439     -794675.95     -822732.9       28056.948     -794208.14      9.9599533      249.701        3001695.2              0 
   1716940   1701.694       1121.6925     -794630.91     -822691.58      28060.666     -794011.41      9.9598785      330.66461      3001717.7              0 
   1716950   1701.695       1121.7418     -794585.87     -822647.77      28061.9       -793814.98      9.9597897      411.46241      3001744.5              0 
   1716960   1701.696       1121.7125     -794540.82     -822601.99      28061.166     -793620.46      9.9596833      491.23628      3001776.5              0 
   1716970   1701.697       1121.6269     -794495.78     -822554.8       28059.026     -793429.62      9.959556       569.04549      3001814.9              0 
   1716980   1701.698       1121.5087     -794450.73     -822506.8       28056.069     -793244.67      9.9594045      643.70887      3001860.6              0 
   1716990   1701.699       1121.3821     -794405.68     -822458.58      28052.9       -793067.24      9.9592257      714.34966      3001914.5              0 
   1717000   1701.7         1121.2708     -794360.64     -822410.76      28050.116     -792899.96      9.9590167      779.57585      3001977.5              0 
Loop time of 1470.48 on 6 procs for 17000 steps with 193536 atoms

Performance: 0.100 ns/day, 240.275 hours/ns, 11.561 timesteps/s
99.7% CPU use with 6 MPI tasks x no OpenMP threads

MPI task timing breakdown:
Section |  min time  |  avg time  |  max time  |%varavg| %total
---------------------------------------------------------------
Pair    | 1385.8     | 1398.3     | 1418.7     |  30.3 | 95.09
Neigh   | 1.2292     | 1.2363     | 1.2472     |   0.5 |  0.08
Comm    | 8.6155     | 29.35      | 42.103     | 213.4 |  2.00
Output  | 8.6072     | 8.612      | 8.6335     |   0.3 |  0.59
Modify  | 26.229     | 26.465     | 26.825     |   4.3 |  1.80
Other   |            | 6.481      |            |       |  0.44

Nlocal:          32256 ave       32318 max       32218 min
Histogram: 2 2 0 0 0 0 0 0 0 2
Nghost:          27640 ave       27687 max       27588 min
Histogram: 2 0 0 0 0 2 0 0 0 2
Neighs:    2.65102e+06 ave 2.66315e+06 max 2.63195e+06 min
Histogram: 2 0 0 0 0 0 0 0 2 2

Total # of neighbors = 15906104
Ave neighs/atom = 82.186797
Neighbor list builds = 19
Dangerous builds = 0
unfix 1

#fix 2 all npt temp 2000.0 2000.0 0.1 iso 0 0 0.5
#run 100000
#unfix 2

#dump 2 all custom 170000 cooling_full.dump id type x y z vx vy vz fx fy fz

#fix 3 all npt temp 2000.0 300.0 0.1 iso 0 0 0.5
#run 1700000
Total wall time: 0:24:30
